# vtk DataFile Version 2.0
untitled, Created by Gmsh 4.11.1 
ASCII
DATASET UNSTRUCTURED_GRID
POINTS 81 double
1 0 0
1 1 0
0 1 0
0 0 0
0.1249999999997738 0 0
0.2499999999994083 0 0
0.37499999999904 0 0
0.4999999999986718 0 0
0.6249999999990038 0 0
0.7499999999993359 0 0
0.8749999999996679 0 0
1 0.1249999999997738 0
1 0.2499999999994083 0
1 0.37499999999904 0
1 0.4999999999986718 0
1 0.6249999999990038 0
1 0.7499999999993359 0
1 0.8749999999996679 0
0.8750000000000254 1 0
0.7500000000004128 1 0
0.6250000000009509 1 0
0.5000000000013305 1 0
0.3750000000009979 1 0
0.2500000000006652 1 0
0.1250000000003326 1 0
0 0.8750000000000254 0
0 0.7500000000004128 0
0 0.6250000000009509 0
0 0.5000000000013305 0
0 0.3750000000009979 0
0 0.2500000000006652 0
0 0.1250000000003326 0
0.5000000000000011 0.5000000000000011 0
0.7500000000000006 0.4999999999993364 0
0.4999999999993364 0.2500000000000006 0
0.7499999999996683 0.2499999999997044 0
0.5000000000006658 0.7500000000000006 0
0.7500000000002067 0.7499999999996682 0
0.2500000000000006 0.5000000000006658 0
0.2500000000003329 0.7500000000002067 0
0.2499999999997044 0.2500000000003329 0
0.8749999999998341 0.2499999999995564 0
0.7499999999995021 0.1249999999998522 0
0.874999999999751 0.124999999999813 0
0.8750000000000002 0.4999999999990041 0
0.7499999999998344 0.3749999999995204 0
0.8749999999999172 0.3749999999992802 0
0.6250000000000009 0.4999999999996688 0
0.4999999999996688 0.3750000000000008 0
0.6249999999995024 0.2499999999998525 0
0.6249999999997516 0.3749999999997606 0
0.4999999999990041 0.1250000000000003 0
0.6249999999992532 0.1249999999999263 0
0.8750000000001034 0.749999999999502 0
0.7500000000001037 0.6249999999995023 0
0.8750000000000517 0.624999999999253 0
0.7500000000003098 0.8749999999998341 0
0.8750000000000643 0.874999999999751 0
0.5000000000009981 0.8750000000000002 0
0.6250000000004363 0.7499999999998344 0
0.6250000000006937 0.8749999999999172 0
0.5000000000003335 0.6250000000000009 0
0.6250000000002187 0.6249999999997516 0
0.3750000000004994 0.7500000000001037 0
0.2500000000001668 0.6250000000004363 0
0.3750000000000008 0.5000000000003335 0
0.3750000000002501 0.6250000000002186 0
0.250000000000499 0.8750000000001034 0
0.3750000000007486 0.8750000000000518 0
0.1250000000001665 0.7500000000003098 0
0.1250000000002495 0.8750000000000643 0
0.1250000000000003 0.5000000000009981 0
0.1250000000000834 0.6250000000006937 0
0.3749999999995204 0.2500000000001668 0
0.2499999999995564 0.1250000000001665 0
0.3749999999992802 0.1250000000000834 0
0.2499999999998525 0.3750000000004994 0
0.3749999999997606 0.3750000000002501 0
0.1249999999998522 0.250000000000499 0
0.1249999999999263 0.3750000000007486 0
0.124999999999813 0.1250000000002495 0

CELLS 64 320
4 0 11 43 10
4 11 12 41 43
4 43 41 35 42
4 10 43 42 9
4 12 13 46 41
4 13 14 44 46
4 46 44 33 45
4 41 46 45 35
4 35 45 50 49
4 45 33 47 50
4 50 47 32 48
4 49 50 48 34
4 9 42 52 8
4 42 35 49 52
4 52 49 34 51
4 8 52 51 7
4 14 15 55 44
4 15 16 53 55
4 55 53 37 54
4 44 55 54 33
4 16 17 57 53
4 17 1 18 57
4 57 18 19 56
4 53 57 56 37
4 37 56 60 59
4 56 19 20 60
4 60 20 21 58
4 59 60 58 36
4 33 54 62 47
4 54 37 59 62
4 62 59 36 61
4 47 62 61 32
4 32 61 66 65
4 61 36 63 66
4 66 63 39 64
4 65 66 64 38
4 36 58 68 63
4 58 21 22 68
4 68 22 23 67
4 63 68 67 39
4 39 67 70 69
4 67 23 24 70
4 70 24 2 25
4 69 70 25 26
4 38 64 72 71
4 64 39 69 72
4 72 69 26 27
4 71 72 27 28
4 7 51 75 6
4 51 34 73 75
4 75 73 40 74
4 6 75 74 5
4 34 48 77 73
4 48 32 65 77
4 77 65 38 76
4 73 77 76 40
4 40 76 79 78
4 76 38 71 79
4 79 71 28 29
4 78 79 29 30
4 5 74 80 4
4 74 40 78 80
4 80 78 30 31
4 4 80 31 3

CELL_TYPES 64
9
9
9
9
9
9
9
9
9
9
9
9
9
9
9
9
9
9
9
9
9
9
9
9
9
9
9
9
9
9
9
9
9
9
9
9
9
9
9
9
9
9
9
9
9
9
9
9
9
9
9
9
9
9
9
9
9
9
9
9
9
9
9
9

CELL_DATA 64
SCALARS CellEntityIds int 1
LOOKUP_TABLE default
5
5
5
5
5
5
5
5
5
5
5
5
5
5
5
5
5
5
5
5
5
5
5
5
5
5
5
5
5
5
5
5
5
5
5
5
5
5
5
5
5
5
5
5
5
5
5
5
5
5
5
5
5
5
5
5
5
5
5
5
5
5
5
5
