# vtk DataFile Version 2.0
untitled, Created by Gmsh 4.11.1 
ASCII
DATASET UNSTRUCTURED_GRID
POINTS 289 double
1 0 0
1 1 0
0 1 0
0 0 0
0.06249999999987061 0 0
0.1249999999997738 0 0
0.1874999999995911 0 0
0.2499999999994083 0 0
0.3124999999992242 0 0
0.37499999999904 0 0
0.4374999999988559 0 0
0.4999999999986718 0 0
0.5624999999988378 0 0
0.6249999999990038 0 0
0.6874999999991699 0 0
0.7499999999993359 0 0
0.812499999999502 0 0
0.8749999999996679 0 0
0.937499999999834 0 0
1 0.06249999999987061 0
1 0.1249999999997738 0
1 0.1874999999995911 0
1 0.2499999999994083 0
1 0.3124999999992242 0
1 0.37499999999904 0
1 0.4374999999988559 0
1 0.4999999999986718 0
1 0.5624999999988378 0
1 0.6249999999990038 0
1 0.6874999999991699 0
1 0.7499999999993359 0
1 0.812499999999502 0
1 0.8749999999996679 0
1 0.937499999999834 0
0.937500000000032 1 0
0.8750000000000254 1 0
0.8125000000002577 1 0
0.7500000000004128 1 0
0.6875000000007041 1 0
0.6250000000009509 1 0
0.5625000000010975 1 0
0.5000000000013305 1 0
0.4375000000011642 1 0
0.3750000000009979 1 0
0.3125000000008316 1 0
0.2500000000006652 1 0
0.1875000000004989 1 0
0.1250000000003326 1 0
0.06250000000016631 1 0
0 0.937500000000032 0
0 0.8750000000000254 0
0 0.8125000000002577 0
0 0.7500000000004128 0
0 0.6875000000007041 0
0 0.6250000000009509 0
0 0.5625000000010975 0
0 0.5000000000013305 0
0 0.4375000000011642 0
0 0.3750000000009979 0
0 0.3125000000008316 0
0 0.2500000000006652 0
0 0.1875000000004989 0
0 0.1250000000003326 0
0 0.06250000000016631 0
0.5000000000000011 0.5000000000000011 0
0.7500000000000006 0.4999999999993364 0
0.4999999999993364 0.2500000000000006 0
0.7499999999996683 0.2499999999997044 0
0.5000000000006658 0.7500000000000006 0
0.7500000000002067 0.7499999999996682 0
0.2500000000000006 0.5000000000006658 0
0.2500000000003329 0.7500000000002067 0
0.2499999999997044 0.2500000000003329 0
0.8749999999998341 0.2499999999995564 0
0.7499999999995021 0.1249999999998522 0
0.874999999999751 0.124999999999813 0
0.8750000000000002 0.4999999999990041 0
0.7499999999998344 0.3749999999995204 0
0.8749999999999172 0.3749999999992802 0
0.6250000000000009 0.4999999999996688 0
0.4999999999996688 0.3750000000000008 0
0.6249999999995024 0.2499999999998525 0
0.6249999999997516 0.3749999999997606 0
0.4999999999990041 0.1250000000000003 0
0.6249999999992532 0.1249999999999263 0
0.8750000000001034 0.749999999999502 0
0.7500000000001037 0.6249999999995023 0
0.8750000000000517 0.624999999999253 0
0.7500000000003098 0.8749999999998341 0
0.8750000000000643 0.874999999999751 0
0.5000000000009981 0.8750000000000002 0
0.6250000000004363 0.7499999999998344 0
0.6250000000006937 0.8749999999999172 0
0.5000000000003335 0.6250000000000009 0
0.6250000000002187 0.6249999999997516 0
0.3750000000004994 0.7500000000001037 0
0.2500000000001668 0.6250000000004363 0
0.3750000000000008 0.5000000000003335 0
0.3750000000002501 0.6250000000002186 0
0.250000000000499 0.8750000000001034 0
0.3750000000007486 0.8750000000000518 0
0.1250000000001665 0.7500000000003098 0
0.1250000000002495 0.8750000000000643 0
0.1250000000000003 0.5000000000009981 0
0.1250000000000834 0.6250000000006937 0
0.3749999999995204 0.2500000000001668 0
0.2499999999995564 0.1250000000001665 0
0.3749999999992802 0.1250000000000834 0
0.2499999999998525 0.3750000000004994 0
0.3749999999997606 0.3750000000002501 0
0.1249999999998522 0.250000000000499 0
0.1249999999999263 0.3750000000007486 0
0.124999999999813 0.1250000000002495 0
0.9374999999998754 0.1249999999997934 0
0.8749999999997095 0.06249999999990651 0
0.9374999999998548 0.06249999999988856 0
0.9374999999999171 0.2499999999994823 0
0.8749999999997926 0.1874999999996847 0
0.9374999999998963 0.1874999999996379 0
0.8124999999997512 0.2499999999996304 0
0.7499999999995852 0.1874999999997783 0
0.8124999999996265 0.1249999999998326 0
0.8124999999996889 0.1874999999997315 0
0.7499999999994189 0.06249999999992611 0
0.8124999999995643 0.06249999999991631 0
0.9374999999999586 0.3749999999991601 0
0.8749999999998757 0.3124999999994183 0
0.9374999999999378 0.3124999999993213 0
0.9375000000000001 0.4999999999988379 0
0.8749999999999587 0.4374999999991422 0
0.9374999999999793 0.437499999998999 0
0.8125000000000004 0.4999999999991703 0
0.7499999999999174 0.4374999999994285 0
0.8124999999998758 0.3749999999994004 0
0.812499999999938 0.4374999999992853 0
0.7499999999997513 0.3124999999996124 0
0.8124999999998135 0.3124999999995154 0
0.6874999999997931 0.3749999999996405 0
0.624999999999627 0.3124999999998066 0
0.6874999999995853 0.2499999999997785 0
0.6874999999996891 0.3124999999997095 0
0.6875000000000007 0.4999999999995026 0
0.6249999999998763 0.4374999999997147 0
0.6874999999998969 0.4374999999995716 0
0.562500000000001 0.4999999999998349 0
0.4999999999998349 0.437500000000001 0
0.5624999999997102 0.3749999999998808 0
0.5624999999998556 0.4374999999998578 0
0.4999999999995026 0.3125000000000007 0
0.5624999999994194 0.2499999999999265 0
0.5624999999995648 0.3124999999999036 0
0.6874999999993776 0.1249999999998892 0
0.6249999999991285 0.06249999999996313 0
0.6874999999992737 0.06249999999994461 0
0.6249999999993778 0.1874999999998894 0
0.6874999999994815 0.1874999999998338 0
0.4999999999991703 0.1875000000000004 0
0.5624999999991287 0.1249999999999633 0
0.5624999999992739 0.1874999999999449 0
0.4999999999988379 0.06250000000000014 0
0.5624999999989833 0.06249999999998163 0
0.9375000000000259 0.6249999999991285 0
0.875000000000026 0.5624999999991286 0
0.9375000000000131 0.5624999999989831 0
0.9375000000000517 0.7499999999994189 0
0.8750000000000775 0.6874999999993775 0
0.9375000000000386 0.6874999999992737 0
0.812500000000155 0.749999999999585 0
0.7500000000001552 0.6874999999995852 0
0.8125000000000777 0.6249999999993776 0
0.8125000000001164 0.6874999999994813 0
0.7500000000000522 0.5624999999994194 0
0.8125000000000392 0.5624999999992739 0
0.9375000000000322 0.8749999999997095 0
0.8750000000000838 0.8124999999996265 0
0.937500000000042 0.8124999999995643 0
0.8750000000000449 0.9374999999998754 0
0.9375000000000321 0.9374999999998548 0
0.7500000000003613 0.9374999999999171 0
0.812500000000187 0.8749999999997926 0
0.8125000000002223 0.9374999999998963 0
0.7500000000002582 0.8124999999997511 0
0.812500000000171 0.8124999999996888 0
0.6875000000005017 0.8749999999998757 0
0.625000000000565 0.8124999999998758 0
0.6875000000003215 0.7499999999997513 0
0.6875000000004116 0.8124999999998135 0
0.6250000000008222 0.9374999999999586 0
0.6875000000006029 0.9374999999999378 0
0.5000000000011643 0.9375000000000001 0
0.5625000000008459 0.8749999999999587 0
0.5625000000009717 0.9374999999999793 0
0.500000000000832 0.8125000000000004 0
0.5625000000005511 0.7499999999999174 0
0.5625000000006986 0.812499999999938 0
0.6875000000001612 0.624999999999627 0
0.6250000000001098 0.5624999999997102 0
0.6875000000000808 0.5624999999995648 0
0.6250000000003275 0.6874999999997931 0
0.6875000000002414 0.6874999999996891 0
0.5000000000004996 0.6875000000000007 0
0.5625000000002761 0.6249999999998763 0
0.5625000000004137 0.6874999999998969 0
0.5000000000001673 0.562500000000001 0
0.5625000000001386 0.5624999999998556 0
0.4375000000002918 0.6250000000001097 0
0.3750000000001255 0.562500000000276 0
0.437500000000001 0.5000000000001673 0
0.4375000000001463 0.5625000000001384 0
0.4375000000005826 0.7500000000000522 0
0.3750000000003748 0.6875000000001612 0
0.4375000000004372 0.687500000000081 0
0.3125000000004161 0.7500000000001552 0
0.2500000000002498 0.6875000000003215 0
0.3125000000002084 0.6250000000003275 0
0.3125000000003123 0.6875000000002414 0
0.2500000000000837 0.5625000000005511 0
0.3125000000000007 0.5000000000004996 0
0.3125000000001045 0.5625000000004136 0
0.4375000000008734 0.875000000000026 0
0.375000000000624 0.8125000000000777 0
0.437500000000728 0.8125000000000391 0
0.3750000000008732 0.937500000000026 0
0.4375000000010188 0.937500000000013 0
0.2500000000005821 0.9375000000000517 0
0.3125000000006238 0.8750000000000776 0
0.3125000000007276 0.9375000000000389 0
0.250000000000416 0.812500000000155 0
0.31250000000052 0.8125000000001164 0
0.1875000000003743 0.8750000000000838 0
0.125000000000208 0.812500000000187 0
0.1875000000002497 0.7500000000002582 0
0.187500000000312 0.812500000000171 0
0.1250000000002911 0.9375000000000322 0
0.1875000000004366 0.937500000000042 0
0.06250000000012476 0.8750000000000449 0
0.06250000000014554 0.9375000000000321 0
0.06250000000008323 0.7500000000003613 0
0.062500000000104 0.8125000000002225 0
0.1875000000001251 0.625000000000565 0
0.1250000000000418 0.5625000000008459 0
0.1875000000000004 0.500000000000832 0
0.1875000000000628 0.5625000000006984 0
0.1250000000001249 0.6875000000005017 0
0.1875000000001874 0.6875000000004116 0
0.06250000000004169 0.6250000000008222 0
0.06250000000006245 0.6875000000006029 0
0.06250000000000014 0.5000000000011643 0
0.06250000000002091 0.5625000000009717 0
0.4374999999991422 0.1250000000000418 0
0.3749999999991601 0.06250000000004169 0
0.437499999998999 0.06250000000002091 0
0.4374999999994285 0.2500000000000837 0
0.3749999999994004 0.1875000000001251 0
0.4374999999992853 0.1875000000000627 0
0.3124999999996124 0.2500000000002498 0
0.2499999999996304 0.1875000000002497 0
0.3124999999994183 0.1250000000001249 0
0.3124999999995154 0.1875000000001874 0
0.2499999999994823 0.06250000000008323 0
0.3124999999993213 0.06250000000006245 0
0.4374999999997147 0.3750000000001255 0
0.3749999999996405 0.3125000000002084 0
0.4374999999995716 0.3125000000001046 0
0.3749999999998808 0.4375000000002918 0
0.4374999999998578 0.4375000000001463 0
0.2499999999999265 0.4375000000005826 0
0.3124999999998066 0.3750000000003748 0
0.3124999999999036 0.4375000000004372 0
0.2499999999997785 0.3125000000004161 0
0.3124999999997095 0.3125000000003123 0
0.1874999999998894 0.3750000000006239 0
0.1249999999998892 0.3125000000006238 0
0.1874999999997783 0.250000000000416 0
0.1874999999998338 0.31250000000052 0
0.1249999999999633 0.4375000000008733 0
0.1874999999999449 0.437500000000728 0
0.06249999999996313 0.3750000000008732 0
0.06249999999998163 0.4375000000010187 0
0.06249999999992611 0.2500000000005821 0
0.06249999999994461 0.3125000000007276 0
0.1874999999996847 0.125000000000208 0
0.1249999999997934 0.06250000000012476 0
0.1874999999996379 0.062500000000104 0
0.1249999999998326 0.1875000000003743 0
0.1874999999997315 0.187500000000312 0
0.06249999999990651 0.1250000000002911 0
0.06249999999991631 0.1875000000004367 0
0.06249999999988856 0.06250000000014554 0

CELLS 256 1280
4 0 19 115 18
4 19 20 113 115
4 115 113 75 114
4 18 115 114 17
4 20 21 118 113
4 21 22 116 118
4 118 116 73 117
4 113 118 117 75
4 75 117 122 121
4 117 73 119 122
4 122 119 67 120
4 121 122 120 74
4 17 114 124 16
4 114 75 121 124
4 124 121 74 123
4 16 124 123 15
4 22 23 127 116
4 23 24 125 127
4 127 125 78 126
4 116 127 126 73
4 24 25 130 125
4 25 26 128 130
4 130 128 76 129
4 125 130 129 78
4 78 129 134 133
4 129 76 131 134
4 134 131 65 132
4 133 134 132 77
4 73 126 136 119
4 126 78 133 136
4 136 133 77 135
4 119 136 135 67
4 67 135 140 139
4 135 77 137 140
4 140 137 82 138
4 139 140 138 81
4 77 132 143 137
4 132 65 141 143
4 143 141 79 142
4 137 143 142 82
4 82 142 147 146
4 142 79 144 147
4 147 144 64 145
4 146 147 145 80
4 81 138 150 149
4 138 82 146 150
4 150 146 80 148
4 149 150 148 66
4 15 123 153 14
4 123 74 151 153
4 153 151 84 152
4 14 153 152 13
4 74 120 155 151
4 120 67 139 155
4 155 139 81 154
4 151 155 154 84
4 84 154 158 157
4 154 81 149 158
4 158 149 66 156
4 157 158 156 83
4 13 152 160 12
4 152 84 157 160
4 160 157 83 159
4 12 160 159 11
4 26 27 163 128
4 27 28 161 163
4 163 161 87 162
4 128 163 162 76
4 28 29 166 161
4 29 30 164 166
4 166 164 85 165
4 161 166 165 87
4 87 165 170 169
4 165 85 167 170
4 170 167 69 168
4 169 170 168 86
4 76 162 172 131
4 162 87 169 172
4 172 169 86 171
4 131 172 171 65
4 30 31 175 164
4 31 32 173 175
4 175 173 89 174
4 164 175 174 85
4 32 33 177 173
4 33 1 34 177
4 177 34 35 176
4 173 177 176 89
4 89 176 180 179
4 176 35 36 180
4 180 36 37 178
4 179 180 178 88
4 85 174 182 167
4 174 89 179 182
4 182 179 88 181
4 167 182 181 69
4 69 181 186 185
4 181 88 183 186
4 186 183 92 184
4 185 186 184 91
4 88 178 188 183
4 178 37 38 188
4 188 38 39 187
4 183 188 187 92
4 92 187 191 190
4 187 39 40 191
4 191 40 41 189
4 190 191 189 90
4 91 184 194 193
4 184 92 190 194
4 194 190 90 192
4 193 194 192 68
4 65 171 197 141
4 171 86 195 197
4 197 195 94 196
4 141 197 196 79
4 86 168 199 195
4 168 69 185 199
4 199 185 91 198
4 195 199 198 94
4 94 198 202 201
4 198 91 193 202
4 202 193 68 200
4 201 202 200 93
4 79 196 204 144
4 196 94 201 204
4 204 201 93 203
4 144 204 203 64
4 64 203 208 207
4 203 93 205 208
4 208 205 98 206
4 207 208 206 97
4 93 200 211 205
4 200 68 209 211
4 211 209 95 210
4 205 211 210 98
4 98 210 215 214
4 210 95 212 215
4 215 212 71 213
4 214 215 213 96
4 97 206 218 217
4 206 98 214 218
4 218 214 96 216
4 217 218 216 70
4 68 192 221 209
4 192 90 219 221
4 221 219 100 220
4 209 221 220 95
4 90 189 223 219
4 189 41 42 223
4 223 42 43 222
4 219 223 222 100
4 100 222 226 225
4 222 43 44 226
4 226 44 45 224
4 225 226 224 99
4 95 220 228 212
4 220 100 225 228
4 228 225 99 227
4 212 228 227 71
4 71 227 232 231
4 227 99 229 232
4 232 229 102 230
4 231 232 230 101
4 99 224 234 229
4 224 45 46 234
4 234 46 47 233
4 229 234 233 102
4 102 233 236 235
4 233 47 48 236
4 236 48 2 49
4 235 236 49 50
4 101 230 238 237
4 230 102 235 238
4 238 235 50 51
4 237 238 51 52
4 70 216 242 241
4 216 96 239 242
4 242 239 104 240
4 241 242 240 103
4 96 213 244 239
4 213 71 231 244
4 244 231 101 243
4 239 244 243 104
4 104 243 246 245
4 243 101 237 246
4 246 237 52 53
4 245 246 53 54
4 103 240 248 247
4 240 104 245 248
4 248 245 54 55
4 247 248 55 56
4 11 159 251 10
4 159 83 249 251
4 251 249 107 250
4 10 251 250 9
4 83 156 254 249
4 156 66 252 254
4 254 252 105 253
4 249 254 253 107
4 107 253 258 257
4 253 105 255 258
4 258 255 72 256
4 257 258 256 106
4 9 250 260 8
4 250 107 257 260
4 260 257 106 259
4 8 260 259 7
4 66 148 263 252
4 148 80 261 263
4 263 261 109 262
4 252 263 262 105
4 80 145 265 261
4 145 64 207 265
4 265 207 97 264
4 261 265 264 109
4 109 264 268 267
4 264 97 217 268
4 268 217 70 266
4 267 268 266 108
4 105 262 270 255
4 262 109 267 270
4 270 267 108 269
4 255 270 269 72
4 72 269 274 273
4 269 108 271 274
4 274 271 111 272
4 273 274 272 110
4 108 266 276 271
4 266 70 241 276
4 276 241 103 275
4 271 276 275 111
4 111 275 278 277
4 275 103 247 278
4 278 247 56 57
4 277 278 57 58
4 110 272 280 279
4 272 111 277 280
4 280 277 58 59
4 279 280 59 60
4 7 259 283 6
4 259 106 281 283
4 283 281 112 282
4 6 283 282 5
4 106 256 285 281
4 256 72 273 285
4 285 273 110 284
4 281 285 284 112
4 112 284 287 286
4 284 110 279 287
4 287 279 60 61
4 286 287 61 62
4 5 282 288 4
4 282 112 286 288
4 288 286 62 63
4 4 288 63 3

CELL_TYPES 256
9
9
9
9
9
9
9
9
9
9
9
9
9
9
9
9
9
9
9
9
9
9
9
9
9
9
9
9
9
9
9
9
9
9
9
9
9
9
9
9
9
9
9
9
9
9
9
9
9
9
9
9
9
9
9
9
9
9
9
9
9
9
9
9
9
9
9
9
9
9
9
9
9
9
9
9
9
9
9
9
9
9
9
9
9
9
9
9
9
9
9
9
9
9
9
9
9
9
9
9
9
9
9
9
9
9
9
9
9
9
9
9
9
9
9
9
9
9
9
9
9
9
9
9
9
9
9
9
9
9
9
9
9
9
9
9
9
9
9
9
9
9
9
9
9
9
9
9
9
9
9
9
9
9
9
9
9
9
9
9
9
9
9
9
9
9
9
9
9
9
9
9
9
9
9
9
9
9
9
9
9
9
9
9
9
9
9
9
9
9
9
9
9
9
9
9
9
9
9
9
9
9
9
9
9
9
9
9
9
9
9
9
9
9
9
9
9
9
9
9
9
9
9
9
9
9
9
9
9
9
9
9
9
9
9
9
9
9
9
9
9
9
9
9
9
9
9
9
9
9
9
9
9
9
9
9

CELL_DATA 256
SCALARS CellEntityIds int 1
LOOKUP_TABLE default
5
5
5
5
5
5
5
5
5
5
5
5
5
5
5
5
5
5
5
5
5
5
5
5
5
5
5
5
5
5
5
5
5
5
5
5
5
5
5
5
5
5
5
5
5
5
5
5
5
5
5
5
5
5
5
5
5
5
5
5
5
5
5
5
5
5
5
5
5
5
5
5
5
5
5
5
5
5
5
5
5
5
5
5
5
5
5
5
5
5
5
5
5
5
5
5
5
5
5
5
5
5
5
5
5
5
5
5
5
5
5
5
5
5
5
5
5
5
5
5
5
5
5
5
5
5
5
5
5
5
5
5
5
5
5
5
5
5
5
5
5
5
5
5
5
5
5
5
5
5
5
5
5
5
5
5
5
5
5
5
5
5
5
5
5
5
5
5
5
5
5
5
5
5
5
5
5
5
5
5
5
5
5
5
5
5
5
5
5
5
5
5
5
5
5
5
5
5
5
5
5
5
5
5
5
5
5
5
5
5
5
5
5
5
5
5
5
5
5
5
5
5
5
5
5
5
5
5
5
5
5
5
5
5
5
5
5
5
5
5
5
5
5
5
5
5
5
5
5
5
5
5
5
5
5
5
